192
# CELL(abcABC):   20.93439    20.93439    28.95249    90.00000    90.00000    90.00000  Step:         190  Bead:       0 positions{atomic_unit}  cell{atomic_unit}
       C  3.05599e+00  1.05485e+00  1.78097e+00
       C  7.41127e+00  9.41226e+00  1.62573e+01
       C  4.17859e+00  8.28954e+00  2.34956e+01
       C  6.28849e+00  2.17756e+00  9.01891e+00
       C  2.17758e+00  6.28849e+00  1.99335e+01
       C  8.28952e+00  4.17856e+00  5.45679e+00
       C  1.05485e+00  3.05600e+00  2.71715e+01
       C  9.41228e+00  7.41125e+00  1.26952e+01
       H  4.54918e+00  1.03368e+00  3.18189e+00
       H  5.91812e+00  9.43337e+00  1.76583e+01
       H  4.19967e+00  9.78266e+00  2.48966e+01
       H  6.26732e+00  6.84366e-01  1.04198e+01
       H  6.84398e-01  6.26733e+00  1.85326e+01
       H  9.78261e+00  4.19963e+00  4.05576e+00
       H  1.03369e+00  4.54918e+00  2.57706e+01
       H  9.43340e+00  5.91811e+00  1.12942e+01
       C  1.20751e+00  9.66165e+00  1.76871e+00
       C  9.25974e+00  8.05482e-01  1.62451e+01
       C  6.03910e+00  6.44117e+00  2.34832e+01
       C  4.42821e+00  4.02617e+00  9.00679e+00
       C  4.02615e+00  4.42818e+00  1.99457e+01
       C  6.44118e+00  6.03911e+00  5.46920e+00
       C  9.66160e+00  1.20754e+00  2.71838e+01
       C  8.05502e-01  9.25973e+00  1.27075e+01
       H  1.27310e+00  8.13871e+00  3.13673e+00
       H  9.19419e+00  2.32839e+00  1.76131e+01
       H  7.56205e+00  6.50678e+00  2.48513e+01
       H  2.90534e+00  3.96067e+00  1.03749e+01
       H  3.96064e+00  2.90529e+00  1.85776e+01
       H  6.50680e+00  7.56207e+00  4.10120e+00
       H  8.13862e+00  1.27316e+00  2.58158e+01
       H  2.32842e+00  9.19418e+00  1.13394e+01
       C  9.74270e+00  9.74268e+00 -7.50639e-06
       C  7.24475e-01  7.24506e-01  1.44763e+01
       C  5.95815e+00  4.50924e+00  2.17144e+01
       C  4.50928e+00  5.95818e+00  7.23806e+00
       H  8.29457e+00  8.29455e+00 -1.95919e-05
       H  2.17259e+00  2.17265e+00  1.44762e+01
       H  7.40637e+00  3.06120e+00  2.17143e+01
       H  3.06127e+00  7.40643e+00  7.23818e+00
       C  2.97965e+00  2.97965e+00 -2.18786e-05
       C  7.48755e+00  7.48752e+00  1.44763e+01
       C  2.25380e+00  8.21320e+00  2.17146e+01
       C  8.21317e+00  2.25376e+00  7.23778e+00
       H  4.42709e+00  4.42708e+00 -2.44930e-05
       H  6.04012e+00  6.04009e+00  1.44763e+01
       H  8.06282e-01  9.66054e+00  2.17147e+01
       H  9.66048e+00  8.06215e-01  7.23767e+00
       C  3.05602e+00  1.15220e+01  1.78092e+00
       C  7.41126e+00  1.98795e+01  1.62573e+01
       C  4.17858e+00  1.87567e+01  2.34957e+01
       C  6.28850e+00  1.26448e+01  9.01896e+00
       C  2.17757e+00  1.67557e+01  1.99336e+01
       C  8.28952e+00  1.46458e+01  5.45683e+00
       C  1.05486e+00  1.35232e+01  2.71714e+01
       C  9.41228e+00  1.78785e+01  1.26952e+01
       H  4.54923e+00  1.15009e+01  3.18182e+00
       H  5.91812e+00  1.99006e+01  1.76583e+01
       H  4.19965e+00  2.02498e+01  2.48967e+01
       H  6.26734e+00  1.11516e+01  1.04199e+01
       H  6.84377e-01  1.67345e+01  1.85326e+01
       H  9.78262e+00  1.46668e+01  4.05581e+00
       H  1.03371e+00  1.50163e+01  2.57705e+01
       H  9.43339e+00  1.63853e+01  1.12942e+01
       C  1.20751e+00  2.01288e+01  1.76871e+00
       C  9.25973e+00  1.12727e+01  1.62450e+01
       C  6.03910e+00  1.69084e+01  2.34833e+01
       C  4.42820e+00  1.44934e+01  9.00683e+00
       C  4.02615e+00  1.48954e+01  1.99457e+01
       C  6.44117e+00  1.65063e+01  5.46923e+00
       C  9.66162e+00  1.16747e+01  2.71838e+01
       C  8.05488e-01  1.97269e+01  1.27075e+01
       H  1.27311e+00  1.86059e+01  3.13671e+00
       H  9.19418e+00  1.27956e+01  1.76131e+01
       H  7.56206e+00  1.69740e+01  2.48513e+01
       H  2.90534e+00  1.44279e+01  1.03749e+01
       H  3.96065e+00  1.33725e+01  1.85776e+01
       H  6.50677e+00  1.80293e+01  4.10122e+00
       H  8.13866e+00  1.17403e+01  2.58158e+01
       H  2.32840e+00  1.96614e+01  1.13394e+01
       C  9.74267e+00  2.02099e+01  7.11312e-06
       C  7.24494e-01  1.11917e+01  1.44763e+01
       C  5.95816e+00  1.49765e+01  2.17145e+01
       C  4.50926e+00  1.64254e+01  7.23809e+00
       H  8.29452e+00  1.87618e+01  3.62495e-05
       H  2.17263e+00  1.26398e+01  1.44763e+01
       H  7.40639e+00  1.35284e+01  2.17144e+01
       H  3.06124e+00  1.78736e+01  7.23819e+00
       C  2.97969e+00  1.34468e+01 -1.00008e-04
       C  7.48754e+00  1.79547e+01  1.44763e+01
       C  2.25378e+00  1.86804e+01  2.17147e+01
       C  8.21318e+00  1.27210e+01  7.23783e+00
       H  4.42716e+00  1.48942e+01 -1.46419e-04
       H  6.04011e+00  1.65073e+01  1.44762e+01
       H  8.06246e-01  2.01277e+01  2.17148e+01
       H  9.66051e+00  1.12734e+01  7.23773e+00
       C  1.35232e+01  1.05483e+00  1.78093e+00
       C  1.78784e+01  9.41228e+00  1.62573e+01
       C  1.46458e+01  8.28953e+00  2.34957e+01
       C  1.67557e+01  2.17757e+00  9.01898e+00
       C  1.26448e+01  6.28848e+00  1.99336e+01
       C  1.87567e+01  4.17858e+00  5.45686e+00
       C  1.15220e+01  3.05598e+00  2.71715e+01
       C  1.98795e+01  7.41126e+00  1.26952e+01
       H  1.50164e+01  1.03365e+00  3.18183e+00
       H  1.63853e+01  9.43340e+00  1.76583e+01
       H  1.46668e+01  9.78263e+00  2.48967e+01
       H  1.67345e+01  6.84389e-01  1.04199e+01
       H  1.11516e+01  6.26731e+00  1.85327e+01
       H  2.02498e+01  4.19966e+00  4.05584e+00
       H  1.15009e+01  4.54917e+00  2.57705e+01
       H  1.99006e+01  5.91811e+00  1.12942e+01
       C  1.16747e+01  9.66161e+00  1.76871e+00
       C  1.97269e+01  8.05502e-01  1.62451e+01
       C  1.65063e+01  6.44119e+00  2.34833e+01
       C  1.48954e+01  4.02616e+00  9.00683e+00
       C  1.44934e+01  4.42820e+00  1.99457e+01
       C  1.69084e+01  6.03911e+00  5.46924e+00
       C  2.01288e+01  1.20753e+00  2.71838e+01
       C  1.12727e+01  9.25974e+00  1.27074e+01
       H  1.17403e+01  8.13864e+00  3.13671e+00
       H  1.96613e+01  2.32842e+00  1.76131e+01
       H  1.80293e+01  6.50681e+00  2.48513e+01
       H  1.33725e+01  3.96065e+00  1.03749e+01
       H  1.44279e+01  2.90533e+00  1.85776e+01
       H  1.69740e+01  7.56206e+00  4.10123e+00
       H  1.86058e+01  1.27314e+00  2.58158e+01
       H  1.27956e+01  9.19419e+00  1.13394e+01
       C  2.02098e+01  9.74273e+00  1.47006e-05
       C  1.11917e+01  7.24492e-01  1.44763e+01
       C  1.64254e+01  4.50928e+00  2.17145e+01
       C  1.49765e+01  5.95817e+00  7.23809e+00
       H  1.87617e+01  8.29463e+00  6.02821e-05
       H  1.26398e+01  2.17262e+00  1.44763e+01
       H  1.78736e+01  3.06126e+00  2.17144e+01
       H  1.35284e+01  7.40639e+00  7.23819e+00
       C  1.34469e+01  2.97962e+00 -6.53740e-05
       C  1.79547e+01  7.48754e+00  1.44762e+01
       C  1.27210e+01  8.21317e+00  2.17147e+01
       C  1.86804e+01  2.25379e+00  7.23786e+00
       H  1.48943e+01  4.42703e+00 -9.54609e-05
       H  1.65073e+01  6.04011e+00  1.44762e+01
       H  1.12734e+01  9.66049e+00  2.17148e+01
       H  2.01277e+01  8.06261e-01  7.23777e+00
       C  1.35232e+01  1.15220e+01  1.78100e+00
       C  1.78784e+01  1.98795e+01  1.62573e+01
       C  1.46458e+01  1.87567e+01  2.34957e+01
       C  1.67557e+01  1.26448e+01  9.01892e+00
       C  1.26448e+01  1.67557e+01  1.99336e+01
       C  1.87567e+01  1.46458e+01  5.45681e+00
       C  1.15220e+01  1.35232e+01  2.71715e+01
       C  1.98795e+01  1.78784e+01  1.26952e+01
       H  1.50164e+01  1.15009e+01  3.18192e+00
       H  1.63853e+01  1.99006e+01  1.76583e+01
       H  1.46668e+01  2.02498e+01  2.48967e+01
       H  1.67345e+01  1.11516e+01  1.04198e+01
       H  1.11516e+01  1.67345e+01  1.85327e+01
       H  2.02498e+01  1.46668e+01  4.05579e+00
       H  1.15009e+01  1.50164e+01  2.57706e+01
       H  1.99006e+01  1.63853e+01  1.12943e+01
       C  1.16747e+01  2.01288e+01  1.76870e+00
       C  1.97269e+01  1.12727e+01  1.62451e+01
       C  1.65063e+01  1.69084e+01  2.34833e+01
       C  1.48954e+01  1.44934e+01  9.00679e+00
       C  1.44934e+01  1.48954e+01  1.99457e+01
       C  1.69084e+01  1.65063e+01  5.46920e+00
       C  2.01288e+01  1.16747e+01  2.71838e+01
       C  1.12727e+01  1.97269e+01  1.27075e+01
       H  1.17403e+01  1.86059e+01  3.13671e+00
       H  1.96614e+01  1.27956e+01  1.76131e+01
       H  1.80293e+01  1.69740e+01  2.48513e+01
       H  1.33725e+01  1.44279e+01  1.03749e+01
       H  1.44279e+01  1.33725e+01  1.85776e+01
       H  1.69740e+01  1.80293e+01  4.10120e+00
       H  1.86058e+01  1.17403e+01  2.58158e+01
       H  1.27956e+01  1.96614e+01  1.13394e+01
       C  2.02099e+01  2.02099e+01 -1.18829e-05
       C  1.11917e+01  1.11917e+01  1.44762e+01
       C  1.64254e+01  1.49765e+01  2.17144e+01
       C  1.49765e+01  1.64254e+01  7.23805e+00
       H  1.87617e+01  1.87618e+01 -8.36591e-06
       H  1.26398e+01  1.26398e+01  1.44762e+01
       H  1.78736e+01  1.35284e+01  2.17143e+01
       H  1.35284e+01  1.78736e+01  7.23815e+00
       C  1.34468e+01  1.34469e+01  2.49059e-05
       C  1.79547e+01  1.79547e+01  1.44763e+01
       C  1.27210e+01  1.86804e+01  2.17147e+01
       C  1.86804e+01  1.27210e+01  7.23780e+00
       H  1.48943e+01  1.48943e+01  3.92596e-05
       H  1.65073e+01  1.65073e+01  1.44763e+01
       H  1.12734e+01  2.01277e+01  2.17148e+01
       H  2.01277e+01  1.12734e+01  7.23770e+00
