################################################################################
# Symmetry function scaling data.
################################################################################
# Col  Name     Description
################################################################################
# 1    e_index  Element index.
# 2    sf_index Symmetry function index.
# 3    sf_min   Symmetry function minimum.
# 4    sf_max   Symmetry function maximum.
# 5    sf_mean  Symmetry function mean.
# 6    sf_sigma Symmetry function sigma.
#########################################################################################################################
#        1          2                        3                        4                        5                        6
#  e_index   sf_index                   sf_min                   sf_max                  sf_mean                 sf_sigma
#########################################################################################################################
         1          1   1.9912431255090404E-01   6.7134881435513827E-01   3.7695874644391930E-01   3.9795548830436317E-02
         1          2   7.2925776151117269E-03   4.0341231237714392E-01   7.5773662975435960E-02   3.4230977621833136E-02
         1          3   5.6248979045895459E-02   4.9982422542371446E-01   3.0651085059284150E-01   5.0487711682062890E-02
         1          4   1.5038174083684624E-01   5.2400982616289360E-01   2.9812441820970059E-01   5.3295993779946461E-02
         1          5   3.8538792427924575E-04   1.7671984196832977E-01   1.3096691090717498E-02   1.2296810288077657E-02
         1          6   1.8494931169995371E-02   1.6056301413116475E-01   8.8705925068619837E-02   1.7613489229265273E-02
         1          7   3.8040899435423207E-02   7.4182208660301407E-01   2.9896628749867438E-01   8.5829420203324736E-02
         1          8   1.8510932471320762E-01   7.6761929867341194E-01   3.3308325036153624E-01   5.8192796750606533E-02
         1          9   3.1065317991861574E-07   6.0651265268118371E-02   6.6722169663867119E-04   2.0387701248365704E-03
         1         10   3.5792207162483793E-03   9.7931171138647036E-02   4.0100248422988621E-02   1.1986723909887106E-02
         1         11   1.0484208886197468E-02   2.1394749158727022E-01   1.1751672377150578E-01   2.0083930883707857E-02
         1         12   2.9524248050262460E-02   1.9040381208336396E-01   1.1562981476502876E-01   2.2512646436013323E-02
         1         13   8.0201251993432598E-01   2.3341004532039182E+00   1.7341271023988509E+00   1.2410767419029592E-01
         1         14   3.1115618884265167E-01   1.4343609378052471E+00   1.1449000556158822E+00   8.1217063080494839E-02
         1         15   5.1681479351649816E-02   2.7787207526130803E-01   1.5783343449817819E-01   2.2716563492215226E-02
         1         16   8.2088724001601068E-02   5.0472596934627501E-01   3.7460178843938025E-01   3.4198960514002029E-02
         1         17   9.4495863222789939E-02   5.1591897951009025E-01   3.8116048867348595E-01   4.6968315347317810E-02
         1         18   1.2865626642214711E-01   1.0023749124111594E+00   6.9586827642105220E-01   8.4080555640070595E-02
         1         19   1.6874114139952320E-01   1.0435786942921956E+00   7.6790948134303705E-01   8.8388524920399433E-02
         1         20   5.0356269181916482E-03   1.1263468631645517E-01   4.8645458019716613E-02   1.3678531203529902E-02
         1         21   6.6345632314160990E-02   1.3709115581263551E+00   8.3022795753606182E-01   1.2421332406744585E-01
         1         22   1.6873365391252926E+00   4.8701952559578237E+00   4.1470749333580788E+00   2.2203064503641007E-01
         1         23   2.1211619870517773E-01   1.1149876561184078E+00   9.0091228346758534E-01   6.0018609781596781E-02
         1         24   3.1715778945825945E-01   1.1341600102790874E+00   8.7622907944076101E-01   6.4154529227015311E-02
         1         25   4.1059973727454890E-01   2.1693073231534714E+00   1.7042291949682860E+00   1.1874209735662156E-01
         1         26   6.6399821368912060E-01   2.1111183883454103E+00   1.6435312200335397E+00   1.3448748136592265E-01
         1         27   4.5506117984770589E-01   2.6783129761327995E+00   2.0146328243372822E+00   1.6974081668002150E-01
         1         28   5.4173756748646296E-01   2.6963481280499666E+00   2.0410668910579459E+00   2.3283679021681533E-01
         1         29   1.0796915082740542E-05   9.8177029924358700E-02   2.4966280981210866E-03   4.7304844818153039E-03
         1         30   2.5826758617749396E-01   2.7139368041733269E+00   1.7610694310925112E+00   2.3453372639325795E-01
         1         31   4.5669598472657763E-01   2.8229393376294261E+00   2.0111543697588368E+00   2.2085471072046936E-01
         1         32   3.3297116547399512E-13   1.1389797520279576E-02   3.1712136760974263E-04   3.7392310473761102E-04
         1         33   2.8712806571579575E-04   2.4849058076193625E-02   2.5991176240811090E-03   1.4830296846434874E-03
         1         34   2.9691866199326058E-04   1.1156612057233797E-02   1.5049959649376184E-03   4.9811163296157516E-04
         1         35   1.1935297572628762E-13   5.6817095290641545E-03   1.0014550419788106E-04   1.4489350763921031E-04
         1         36   6.7461238745027867E-05   1.5004362659952381E-02   1.1731013346565661E-03   9.2409974833344898E-04
         1         37   3.2497689432702873E-05   7.1445187755364240E-03   2.8856119694421290E-04   2.2157740002033439E-04
         1         38   3.7967673831055111E-13   1.3943511497336017E-02   6.9309274054943967E-04   6.7032741100228198E-04
         1         39   1.2850488440077155E-03   3.4238216650213066E-02   7.1695722533639955E-03   2.4733391563083813E-03
         1         40   3.2971678869329743E-03   2.0781950619647490E-02   1.1010036854437659E-02   1.8716049726991159E-03
         1         41   1.5335096090091153E-14   2.2076288447558396E-03   1.6728592551993190E-05   3.8932545312256701E-05
         1         42   5.7836498132161833E-06   8.9836771929983402E-03   4.9466662063110906E-04   5.8353166127039552E-04
         1         43   7.2916325849321644E-07   5.4618681627273289E-03   7.9013956941911153E-05   1.3812693152910204E-04
         1         44   1.5518437050445972E-13   8.7500307634674306E-03   4.2513226598250853E-04   4.1384345864292247E-04
         1         45   9.7881150250946438E-04   2.4497100639862886E-02   5.5028901483274769E-03   1.8614000901806705E-03
         1         46   2.7808304419284732E-03   1.6786611083150341E-02   9.0416896349883365E-03   1.4568529431368002E-03
         1         47   3.6095183826412346E-14   6.7043835536317771E-03   1.2806251385343132E-04   1.8749911534909002E-04
         1         48   1.3946818227499944E-04   7.4781732673718463E-03   8.8431215284701309E-04   2.9624171876235810E-04
         1         49   6.4571800964436168E-04   2.6052339663272618E-02   4.2857111068687103E-03   1.7714501829142711E-03
         1         50   2.5853484615739910E-05   9.6789679700331772E-03   5.7636183255439441E-04   5.3102310230724323E-04
         1         51   1.7405820200309573E-05   4.1718582940503419E-03   1.4326759914922365E-04   1.0926635451608871E-04
         1         52   4.1158223548946654E-14   8.5356636339470951E-03   2.8006202028316136E-04   3.4161076916820960E-04
         1         53   1.7713017595327334E-03   1.3816942891522747E-02   6.8321218421112870E-03   1.3087216498299497E-03
         1         54   1.6623755140466283E-15   1.2253612750136125E-03   6.5255588782278281E-06   1.8780481496456990E-05
         1         55   2.1085761253881610E-06   6.0612682075372737E-03   2.4428472733132114E-04   3.3858938094598513E-04
         1         56   2.6422701261391941E-07   3.2770757393116561E-03   3.0925820225454857E-05   6.5797166901853293E-05
         1         57   1.6822502850571975E-14   5.3613456411534480E-03   1.7133537008852487E-04   2.1106115621500812E-04
         1         58   4.1816617198803943E-16   2.4532601034299171E-03   2.3521860748585215E-05   5.3478787774636348E-05
         1         59   1.6635946367849465E-05   6.9862281533696084E-03   3.3782004423661162E-04   2.9686199226406089E-04
         1         60   3.5490172768252735E-05   3.7590203597370900E-03   3.3814548530033148E-04   1.2820809169202351E-04
         1         61   1.4989098801932437E-16   1.1533322028320283E-03   7.2895493260674812E-06   2.0060452000431998E-05
         1         62   3.7508594022750831E-06   4.4123958798727454E-03   1.5183015556336947E-04   1.8935611054502751E-04
         1         63   2.8118867939635016E-06   1.5419994601976929E-03   4.3703477724434804E-05   3.3350590597903283E-05
         1         64   8.6141486832194499E-05   8.7259833985815216E-03   9.5363032659327089E-04   5.1175543076336283E-04
         1         65   5.3567660469804794E-04   6.4624816996067258E-03   2.7528409528665876E-03   6.7030396896581765E-04
         1         66   1.9258780020587071E-17   3.9025695878021317E-04   1.1300967605678938E-06   4.9552461902935516E-06
         1         67   2.4792943024219512E-07   2.8069947132515049E-03   6.4715200892928533E-05   1.2185124377763337E-04
         1         68   5.6072213735481645E-08   1.2256418662643408E-03   5.2903049570992952E-06   1.7108711336441962E-05
         1         69   1.9489031151945688E-16   2.1003561012741491E-03   3.1372031762943279E-05   6.1835026148870131E-05
         1         70   6.9406853926323497E-05   7.1850397311083742E-03   7.3430973012492834E-04   3.9103395066747524E-04
         1         71   4.4630981722767099E-04   5.1921243716849409E-03   2.2586615365420147E-03   5.2590603840894305E-04
         1         72   5.6929032065809907E-20   3.8255776564145698E-04   1.2188261446857444E-06   6.3459339283340121E-06
         1         73   4.1392733475848022E-07   1.8184086600447334E-03   2.9904970012498856E-05   4.7057392298674652E-05
         1         74   2.9354239898656609E-06   1.1221045974577823E-03   5.8925987368483871E-05   3.0637850309878029E-05
         1         75   5.5962191804356913E-05   1.9449542254957625E-03   5.3671539853311710E-04   1.9579518215848314E-04
         1         76   2.0406119468631039E-20   1.5997141491601774E-04   3.7194414674477319E-07   2.2845349990405372E-06
         1         77   9.5061715982862270E-08   1.1694509620285198E-03   1.3664868651685565E-05   3.0624120859335327E-05
         1         78   1.5512528837877529E-07   4.7185801694227860E-04   6.5850130568459144E-06   6.1642591964253395E-06
         1         79   6.4914417376514755E-20   5.7037257224992787E-04   2.6717958684758223E-06   1.2323650081983730E-05
         1         80   2.2691626577746423E-06   2.3301959527605482E-03   8.1454732498109270E-05   7.9997868152682406E-05
         1         81   2.6218852188066037E-21   4.4594223149800471E-05   5.3876330957394000E-08   4.9059831559716653E-07
         1         82   5.8159102519541142E-09   7.4809460133212899E-04   5.9218271848974637E-06   1.9568759678816872E-05
         1         83   2.6860340180570807E-09   1.8557093388089736E-04   2.6916053107946183E-07   1.8514844291305614E-06
         1         84   2.6532315469373226E-20   3.5799089698656758E-04   1.6192537202018096E-06   7.5919363030548058E-06
         1         85   1.8534291047160201E-06   1.9882555823918777E-03   6.2463730054303023E-05   6.1824922228941254E-05
         1         86   4.4638529058111911E-05   1.3092005002095124E-03   3.9586899353096460E-04   1.3547560148246288E-04
         1         87   1.0551242511294571E-27   1.1970655166084354E-05   1.1157768998654207E-08   1.6967780455649294E-07
         1         88   2.5705011100577690E-10   1.8275967542961656E-04   4.3542325578366977E-07   2.2591793598463198E-06
         1         89   2.4019750088548800E-08   1.1844861458224552E-04   2.1334682976096512E-06   1.9822670145893622E-06
         1         90   1.8818888726889358E-27   2.6075255479987514E-05   3.2389310131339691E-08   4.5099738150084235E-07
         1         91   4.5704180482180375E-07   1.6209614375050824E-04   1.8492022415816604E-05   1.1599294876476242E-05
         1         92   3.7820758129011839E-28   4.2290492063431225E-06   3.3114172630706259E-09   5.8137838572219893E-08
         1         93   5.4877961661463980E-11   1.1802144274574178E-04   2.1535701343103776E-07   1.5084749590397950E-06
         1         94   1.1861020338334269E-09   5.1232602653253832E-05   2.4193955544120801E-07   4.5094519456292204E-07
         1         95   1.2031256028158457E-27   1.9579238091634936E-05   2.4542958395756140E-08   3.4314637977260400E-07
         1         96   1.8290927479396773E-09   2.4277049332245448E-04   1.0136694577963046E-06   3.6266740341802532E-06
         1         97   4.8594092990071175E-29   9.2442929510790645E-07   4.2846212951967882E-10   1.0214246648601467E-08
         1         98   5.2794637112751203E-12   6.3062537768490329E-05   9.9119718097241129E-08   8.9882383421998286E-07
         1         99   3.1763444551920814E-12   9.7550237227119109E-06   5.0407196526166802E-09   7.2131491594842195E-08
         1        100   4.9175066700573562E-28   1.2223927583685178E-05   1.4724259902566393E-08   2.1100712691421278E-07
         1        101   1.5228869231455595E-09   2.0992002958122901E-04   7.6877473150494988E-07   2.8765116026097446E-06
         1        102   3.6230416808423545E-07   1.0441496135914274E-04   1.3424476108887721E-05   7.8387823180962855E-06
         1        103   1.1292239397278350E-04   1.2522049336433094E-01   2.2879129885801187E-02   8.4709842787783624E-03
         1        104   8.9575277569801832E-03   2.5640276178215660E-01   7.8740474285739895E-02   1.8837278654891883E-02
         1        105   9.4136133442217773E-03   1.2981987788017124E-01   3.7674782458372996E-02   1.0806915170584769E-02
         1        106   3.6866217496654844E-05   6.5804978806198955E-02   9.2484944038552300E-03   4.1931434557069035E-03
         1        107   2.8951974862378113E-03   1.3905641920708531E-01   3.6894237382630542E-02   1.0956414971828534E-02
         1        108   1.6200848215971104E-03   8.0112167175561841E-02   1.7974701668194624E-02   6.7055380799005415E-03
         1        109   2.4729060207489471E-04   1.4274515993580930E-01   4.8883297750882633E-02   1.2327676176021837E-02
         1        110   3.0268386507964564E-02   4.0783936330263304E-01   1.8408944355958679E-01   2.9169439252188508E-02
         1        111   3.7365628391195665E-05   8.5053528513855572E-02   1.2079981661418561E-02   5.2819027231200558E-03
         1        112   5.9096072740134680E-03   1.7396742093934020E-01   4.5811031045854121E-02   1.2547314813482419E-02
         1        113   6.6677228801631985E-03   8.8846296012810883E-02   2.1584345798573594E-02   6.6844663394170709E-03
         1        114   1.2280485376511504E-05   4.3994059655239823E-02   4.7621863918244287E-03   2.5267411982007994E-03
         1        115   1.8689524444292075E-03   9.4923768082437576E-02   2.1552356413954993E-02   7.4494030211365086E-03
         1        116   7.7846921335813807E-05   9.5025249137594012E-02   2.5884092139338954E-02   7.8627002786656325E-03
         1        117   2.0465586076994394E-02   2.7291591475132071E-01   1.0922660999205500E-01   1.9206146769429763E-02
         1        118   4.5087394229776354E-02   1.5402204219762314E-01   8.2566600063424200E-02   1.1081032266919024E-02
         1        119   4.4094095176740402E-06   4.3392424306077551E-02   3.8003724959755031E-03   2.2260397972899784E-03
         1        120   2.7870230450085850E-03   8.9303857056066152E-02   1.7757989678864178E-02   6.1592062362066232E-03
         1        121   2.4047032796363330E-03   4.5231660623076854E-02   8.3821614561883015E-03   2.7893160416042118E-03
         1        122   2.0218924529040706E-02   9.5511517044364086E-02   4.5997651074294731E-02   6.8166682271234525E-03
         1        123   1.4705596212344048E-06   2.2132241580684008E-02   1.4243844219135047E-03   1.0011382190015000E-03
         1        124   7.9472504998366643E-04   4.9578013329669011E-02   8.3689072994086264E-03   3.7626064303624114E-03
         1        125   4.6398877594663299E-04   2.8574631299295501E-02   3.2372823362568437E-03   1.6820063853557215E-03
         1        126   8.2885365251502346E-06   4.8516707451088166E-02   8.1853370955324960E-03   3.4983497513378257E-03
         1        127   1.0292361484846860E-02   1.3646146804980705E-01   4.4099826245486917E-02   9.4660774207865808E-03
         2          1   6.9234748356709869E-02   8.6315596280683093E-01   4.8478223588695596E-01   4.4411653445566905E-02
         2          2   3.5756944919599348E-01   6.3865843710480341E-01   4.8861343047803552E-01   2.4464708410916223E-02
         2          3   8.8222088582296743E-02   5.2618907478863686E-01   2.9806426396873803E-01   4.2449040949516716E-02
         2          4   1.7846846329281982E-01   4.5077995876090826E-01   2.4654479192357534E-01   2.2779679834107450E-02
         2          5   1.4625370481699735E-03   2.1914206020984650E-01   1.2126415198217604E-01   1.8544581426057732E-02
         2          6   2.8553440904429565E-02   1.1506970637932737E-01   6.8542850934342925E-02   8.2345229089839152E-03
         2          7   1.9912237846662770E-04   1.4947327485056991E-01   7.5811921726905152E-02   1.6054119806223129E-02
         2          8   6.7349213725311649E-02   7.5083061947364982E-01   3.3301604228034953E-01   5.1009517773317872E-02
         2          9   2.6847167324642285E-01   5.4225696960946934E-01   3.4573619123830662E-01   2.0249567547137734E-02
         2         10   9.9333707766107687E-06   9.8794462422211071E-02   4.0092157170280182E-02   1.1931422879425755E-02
         2         11   5.0064756029216872E-03   4.2721959248545271E-02   1.9362582010253235E-02   3.5150968379152573E-03
         2         12   1.2890467623739115E-02   2.0185839497478961E-01   1.1560648348682757E-01   2.0302064946876752E-02
         2         13   3.7420107636310658E-02   1.8563176827574737E-01   7.3991915741927289E-02   1.6975232183343847E-02
         2         14   4.7842465480937024E-01   2.3641802699749865E+00   1.7337771978180596E+00   1.1088075801708763E-01
         2         15   9.5315205899215605E-01   1.9813733844586239E+00   1.5357411341209843E+00   9.3357657326774673E-02
         2         16   3.3627279042665870E-01   1.4632292615736380E+00   1.1446690426910198E+00   7.7943223766596251E-02
         2         17   3.4584939565598083E-01   1.2831726663536449E+00   9.6774374098171279E-01   8.3737659225201558E-02
         2         18   3.5707853054746524E-01   1.8240710350467790E+00   1.3860996031049111E+00   1.1495608316341574E-01
         2         19   5.0620886558188993E-01   1.6073501160876389E+00   1.0535904408816503E+00   1.2143287885034548E-01
         2         20   1.0690279725267020E-01   5.0150846194615895E-01   3.8108357977746621E-01   3.5484935770082500E-02
         2         21   1.3053481723834096E-01   5.2807534017686486E-01   3.8358160629558441E-01   3.5593165469291296E-02
         2         22   2.4551562312262953E-01   1.0630912583112566E+00   7.6775453592710807E-01   8.3731712355179830E-02
         2         23   1.3902950871706951E-01   9.8946977314064555E-01   6.7609888676566854E-01   7.3741118296953539E-02
         2         24   2.1173438312233072E-05   1.1391561521026007E-01   4.8635642551996774E-02   1.3584818146598513E-02
         2         25   7.1726593275249842E-03   5.3746138261022133E-02   2.5544621039968820E-02   4.3674115797436878E-03
         2         26   2.1349632705114058E-01   1.3971721112257045E+00   9.5889436751806811E-01   1.0397059843343402E-01
         2         27   1.7648564496894167E-01   1.1307976724196414E+00   6.7031594252937110E-01   1.2162187097496677E-01
         2         28   1.2361199058789343E+00   4.9898765230008042E+00   4.1462381547193843E+00   2.2563601261755459E-01
         2         29   1.8725601278904022E-01   1.0740469363636123E+00   8.7605227777017125E-01   5.6884076035746862E-02
         2         30   3.9175713972408982E-01   1.1358893333852138E+00   9.4218620759195360E-01   5.5656227429638355E-02
         2         31   3.3215160074263222E-01   2.0964423787551154E+00   1.6431995954935830E+00   1.1005893493116911E-01
         2         32   7.9565602016382508E-01   2.2105744918481105E+00   1.8053913266337518E+00   1.4320520317915600E-01
         2         33   5.6971692308730049E-01   2.6246727272306050E+00   2.0406550535093055E+00   1.7223898889437561E-01
         2         34   7.2835634974559194E-01   2.7981906925118185E+00   2.0721020070053382E+00   1.8284176586372636E-01
         2         35   6.2925911994694872E-01   2.8266144142252028E+00   2.0107485678278914E+00   2.0818963399164270E-01
         2         36   2.9786308573506914E-01   2.4993120048274085E+00   1.6466165867656950E+00   2.1133953279813159E-01
         2         37   1.0242360143839257E-03   7.1288572421863454E-03   3.2723351302457733E-03   5.2227261186846296E-04
         2         38   2.9319631242741958E-05   3.1423935719885970E-02   3.4946838528444311E-03   1.7858783011687035E-03
         2         39   3.2468299183988076E-03   1.7011116969543549E-02   8.0681183934065998E-03   1.1273303504699456E-03
         2         40   1.5734084405417891E-06   5.3188078854820844E-03   9.7980532052363762E-04   3.1024453078375879E-04
         2         41   5.4239554136764632E-05   1.2986900856665819E-02   7.0926127194659476E-03   1.2320399399094869E-03
         2         42   5.3883710075499594E-04   4.2680521372314862E-03   1.9113964271387379E-03   3.4017547523817327E-04
         2         43   1.7729343785855768E-03   2.5937170794173264E-02   1.3530596969175206E-02   2.0171853366363693E-03
         2         44   6.5400150619553122E-08   1.9037809660403865E-03   2.6774652320834467E-04   9.0826953696690861E-05
         2         45   2.1385018560348960E-05   8.1309613159112892E-03   3.9407804822599053E-03   7.4545251502396788E-04
         2         46   1.9657829974801315E-04   2.6726766399311126E-03   9.6032528616367223E-04   2.1746170074815293E-04
         2         47   1.8403546093292199E-05   1.6764319552114718E-02   1.3386020220840166E-03   1.0460646656471697E-03
         2         48   9.6062981450152878E-04   2.0190159053320725E-02   1.1007582294012722E-02   1.6213318219515695E-03
         2         49   1.9170497858674188E-03   1.0653240821432170E-02   5.3710997027459429E-03   7.5877063407208507E-04
         2         50   1.9932709840194155E-06   6.9371951229247756E-03   1.0578442704654864E-03   4.1191561184211636E-04
         2         51   1.2847117549562894E-04   1.2584339498097678E-02   6.5245650410732138E-03   1.2297610716967486E-03
         2         52   4.9021868929576917E-04   4.0955640078293868E-03   1.7811563681987379E-03   3.2330487419669724E-04
         2         53   4.3391372990744887E-07   3.7567813924794420E-03   4.9438473366254700E-04   1.8016391519173625E-04
         2         54   2.5336838433026132E-04   2.5571437529427420E-03   1.0630864465013801E-03   2.1340528057941924E-04
         2         55   7.3819378323781202E-06   1.5318803685527351E-02   1.1609754191164749E-03   8.2722281384669898E-04
         2         56   8.9050019308212344E-04   1.7287307728254597E-02   8.2923400843618825E-03   1.4073646118705142E-03
         2         57   1.1986052763434214E-03   8.4736566500943026E-03   3.6478699720277523E-03   5.8925005518936917E-04
         2         58   1.7436755295918902E-08   1.3044720932322068E-03   1.3367111495751364E-04   5.0873775990177706E-05
         2         59   6.7918389055547049E-06   5.4775361672567786E-03   2.4498648723981211E-03   5.2033890663886247E-04
         2         60   9.7487796674008620E-05   1.6249375886321208E-03   5.4617868622019203E-04   1.3231678329137276E-04
         2         61   5.2570834842323833E-06   1.1137490857633424E-02   6.4648365786052864E-04   6.0687192623308127E-04
         2         62   3.9475674531029407E-04   1.3465177072730717E-02   6.7912017578358906E-03   1.1523307353673293E-03
         2         63   9.1783260631576034E-04   6.4906026421621245E-03   2.9522778779474076E-03   4.7621727648526553E-04
         2         64   1.6148775389323261E-07   3.5135455847942650E-03   2.8238266684005011E-04   1.4751867485727853E-04
         2         65   1.1066059643051344E-04   1.5645164081949125E-03   5.5015030185954735E-04   1.2602941324916218E-04
         2         66   8.5790162427792373E-04   9.6538135147979133E-03   4.1392061229942349E-03   8.6142872687025801E-04
         2         67   3.7970453648332084E-04   3.7494696532237586E-03   1.3378014654429828E-03   2.6085040511369728E-04
         2         68   3.3523931831078609E-08   1.9601239114306339E-03   1.3131762163087348E-04   6.3842246973054939E-05
         2         69   3.0257421339793890E-06   4.2208908960688499E-03   1.7943526838563289E-03   4.4875249922225394E-04
         2         70   1.2676057805495984E-09   6.5919848207646225E-04   3.4588986626884706E-05   1.7089648182118167E-05
         2         71   6.9438086622777914E-07   2.5384660129328198E-03   9.8497129264861288E-04   2.5755913592505445E-04
         2         72   2.3345861349547627E-05   6.0822217388702734E-04   1.7855427546207363E-04   5.0025901567269851E-05
         2         73   4.3069461824247707E-07   5.3694525537807273E-03   1.6779238386465696E-04   2.2101324334138978E-04
         2         74   7.1494691822275225E-05   6.4181246740687486E-03   2.7229499282278120E-03   5.9931517891954683E-04
         2         75   2.1763847370138986E-04   2.4761484699078119E-03   9.2402690989955934E-04   1.8649350853798313E-04
         2         76   1.1223008001823129E-09   9.9339022008563486E-04   2.3520559862705870E-05   2.2774554454279959E-05
         2         77   3.4442408945908066E-06   1.5009594571757251E-03   4.6289135803194702E-04   1.5935362994740499E-04
         2         78   6.0636024770181810E-06   2.8081756546670877E-04   5.8364627998232856E-05   1.9370934619358938E-05
         2         79   2.1664316630593132E-10   5.7069973280433884E-04   1.0594622168837296E-05   9.6165828133760621E-06
         2         80   1.4699578670887477E-07   1.0352753143861926E-03   3.1495021716340226E-04   1.1227893082436187E-04
         2         81   2.5713949339597644E-06   1.6659341731587558E-04   3.6679158337982217E-05   1.3204661607638696E-05
         2         82   4.4628907159484937E-09   2.0339035521262845E-03   2.7340531114016034E-05   4.9335275408335028E-05
         2         83   3.7725515599627869E-05   2.2340225280829723E-03   5.8020990107627722E-04   1.8651602672193138E-04
         2         84   1.8542758735910502E-05   4.9905784283384516E-04   1.1932582912017029E-04   3.3883463722318107E-05
         2         85   7.4676513086600179E-12   1.9386245540899748E-04   2.6192700412121332E-06   2.4904828418201164E-06
         2         86   8.1613229933475304E-09   5.8336132906895645E-04   1.7067868997498116E-04   6.2114324059035962E-05
         2         87   1.2258076081599525E-06   9.4831800646000996E-05   1.9785860414483112E-05   7.3592380402770854E-06
         2         88   3.8095004612213843E-06   1.7399768032246292E-03   4.7884201087797256E-04   1.5615343337207295E-04
         2         89   1.3344430490223272E-05   3.9526089254831643E-04   9.9106502394204237E-05   2.8395620181524352E-05
         2         90   5.9705458144107547E-14   8.6757682155931226E-05   2.6107015890428860E-07   1.0737680609098343E-06
         2         91   5.4176089367221718E-08   1.1498631596542833E-04   1.5854016561295996E-05   9.1489897593188111E-06
         2         92   2.0984267801777880E-08   1.0133253295738533E-05   7.6065529263398945E-07   4.3106432716650987E-07
         2         93   1.4724016893461876E-06   2.4463798163400788E-04   2.5388641422976434E-05   1.3488614957405912E-05
         2         94   1.1546637334373396E-07   1.7378781057051435E-05   1.8368077600070957E-06   8.4971173824750134E-07
         2         95   1.0554329905580249E-14   5.0584432288730896E-05   1.0566779925706106E-07   4.7304758443111689E-07
         2         96   1.6785242836614204E-09   7.5419127107253966E-05   1.0611359019732396E-05   6.2343031680929723E-06
         2         97   7.8569371424592787E-09   6.2225924296564936E-06   4.7940402486382189E-07   2.9300720899483626E-07
         2         98   2.2974245843686995E-13   2.1257806249704456E-04   4.1793856161858696E-07   2.5329109321472116E-06
         2         99   8.4305257643547197E-08   1.5292559183770413E-05   1.5555564922369290E-06   7.4646317614011874E-07
         2        100   3.3378183213387396E-16   1.7272663425453584E-05   2.2467551475420729E-08   1.3622745969898323E-07
         2        101   3.7180938941161441E-12   3.5326052248822849E-05   5.5952565220188152E-06   3.2677338969302914E-06
         2        102   2.8038165416497719E-09   2.4768835251939526E-06   2.5860647486210312E-07   1.5479304035016775E-07
         2        103   1.5594772938537648E-13   1.6052415888321957E-04   2.5723157775867834E-07   1.9470780169642998E-06
         2        104   6.9390998434653258E-08   1.5664784033385840E-04   1.6491814207304465E-05   9.4461861500374001E-06
         2        105   5.6740633612881042E-08   1.2188247410321940E-05   1.2943082913178611E-06   6.2549355408767363E-07
         2        106   1.7137881624537229E-03   1.3499957339801713E-01   4.8717137990994072E-02   8.7872026374733042E-03
         2        107   1.6952308143407858E-02   2.4175288762104999E-01   1.2138405448674414E-01   1.3388190742569970E-02
         2        108   2.4314865053535594E-02   7.9019963861582290E-02   4.3169654241994204E-02   5.0096526199987102E-03
         2        109   4.7116247234195088E-04   6.3709945334315718E-02   2.2726870054317370E-02   4.0943510657032514E-03
         2        110   8.0412857597414247E-03   1.3940506778753745E-01   7.4143007199905214E-02   7.6699511323793362E-03