################################################################################
# Symmetry function scaling data.
################################################################################
# Col  Name     Description
################################################################################
# 1    e_index  Element index.
# 2    sf_index Symmetry function index.
# 3    sf_min   Symmetry function minimum.
# 4    sf_max   Symmetry function maximum.
# 5    sf_mean  Symmetry function mean.
# 6    sf_sigma Symmetry function sigma.
#########################################################################################################################
#        1          2                        3                        4                        5                        6
#  e_index   sf_index                   sf_min                   sf_max                  sf_mean                 sf_sigma
#########################################################################################################################
         1          1   2.7847941590830588E-01   8.3917062717325441E-01   4.7441573093842188E-01   4.1730919112013029E-02
         1          2   1.3531134364769221E-01   5.1665128034585883E-01   2.8032624720804256E-01   2.5713638418897553E-02
         1          3   1.2722929839604191E-01   5.0164976672684425E-01   3.0566412530724929E-01   4.7015961442653777E-02
         1          4   1.5744461088848158E-01   5.2791310708061889E-01   2.9150803159764516E-01   4.6845968223209224E-02
         1          5   3.8538792427924575E-04   1.8538840361059372E-01   9.1541863097164625E-03   6.7704074912660140E-03
         1          6   4.8174669460895540E-02   7.4438562824780430E-01   2.8234892058490174E-01   7.4037916025282938E-02
         1          7   1.8510932471320762E-01   7.6761929867341194E-01   3.1682614242832974E-01   4.2364279463992897E-02
         1          8   3.1065317991861574E-07   6.0651265268118371E-02   2.4363826159182799E-04   7.2352874771011103E-04
         1          9   3.5792207162483793E-03   1.1059495658547763E-01   4.0325000200767229E-02   1.1544097018562328E-02
         1         10   3.5294080199496543E-02   2.1493522783074939E-01   1.2120966716981993E-01   1.8142389051989890E-02
         1         11   3.5434289419291908E-02   2.0454119282971417E-01   1.1926307773915627E-01   2.0898457594970134E-02
         1         12   1.2837638693601385E+00   2.3341004532039182E+00   1.7190379834040901E+00   9.6788185798895726E-02
         1         13   7.9653413553773766E-01   1.4245549957722199E+00   1.0734159127308027E+00   6.8061197011987776E-02
         1         14   8.5124323548500469E-01   1.8481580738955790E+00   1.3927567449517064E+00   1.0799115981670261E-01
         1         15   2.5242632469775944E-01   5.1435355837854435E-01   3.6901382255320830E-01   3.2167927130753143E-02
         1         16   1.8523747939994958E-01   5.1962032219538334E-01   3.7536899862043260E-01   4.6402124769621987E-02
         1         17   1.9662597148849693E-02   1.8750247979270446E-01   9.4317195056966660E-02   1.7865087783333258E-02
         1         18   3.8124691642523389E-01   1.0371716349141851E+00   6.8954028058325989E-01   8.4103367196854975E-02
         1         19   3.6990923080380256E-01   1.0919996917340220E+00   7.6357350107276056E-01   8.4191018034870641E-02
         1         20   5.0356269181916482E-03   1.2644392901904958E-01   4.8895148930241189E-02   1.3160474324039304E-02
         1         21   3.4204680687616840E-01   1.3909978057340708E+00   8.4422814688907566E-01   1.1074640438116469E-01
         1         22   3.9844325831684085E-01   1.5170577854059000E+00   9.8427814658525581E-01   9.3731936924912024E-02
         1         23   3.4506819857388247E+00   4.8792399715701631E+00   4.1192395330199938E+00   1.7289469211264105E-01
         1         24   3.7675988806486906E-02   6.0093539510466532E-01   1.3974369863333355E-01   3.6997469464439811E-02
         1         25   6.7050037402376916E-01   1.1198768606969849E+00   8.9626642540089907E-01   5.0352306809915565E-02
         1         26   6.6290910620341048E-01   1.1378622579344186E+00   8.7116053505405000E-01   5.5340957809696563E-02
         1         27   1.2308799187477004E+00   2.1786597450719203E+00   1.6938656355874111E+00   9.2808467072085857E-02
         1         28   1.1490124713035097E+00   2.1283135788401149E+00   1.6305502637538047E+00   1.1062686122640245E-01
         1         29   1.3863892091658023E+00   2.7267671603084240E+00   1.9872779781191248E+00   1.5609905701103749E-01
         1         30   1.0664683633476573E+00   2.7169837899585074E+00   2.0125475003707924E+00   2.2744577776059263E-01
         1         31   1.0796915082740542E-05   1.0279697416075416E-01   1.2536111973787294E-03   1.9974342830485284E-03
         1         32   9.3652390934554863E-01   2.7139368041733269E+00   1.7581107015455042E+00   2.2990785663015459E-01
         1         33   8.7269147132764047E-01   2.8229393376294261E+00   2.0200472317272076E+00   2.0045536916456894E-01
         1         34   2.8347966243263758E-06   1.1872589065269135E-02   2.2565330361417533E-04   2.0933102028872786E-04
         1         35   2.8862635059807216E-04   2.4855144510857262E-02   2.0578613721239669E-03   8.9858586165429547E-04
         1         36   2.9691866199326058E-04   1.1156612057233797E-02   1.3724498699260387E-03   3.2958135038151055E-04
         1         37   4.4710444661468388E-07   5.6817095290641545E-03   6.7302576259130393E-05   7.6375870215463829E-05
         1         38   6.9326748000606502E-05   1.5022281273565469E-02   8.7410388977496149E-04   5.4109475904188587E-04
         1         39   3.2497689432702873E-05   7.1445187755364240E-03   2.1869834575290824E-04   1.0446755768752606E-04
         1         40   6.5894847341721655E-06   1.4378234705259365E-02   4.9662964273899783E-04   3.8229662277375120E-04
         1         41   1.4614496587307597E-03   3.4238216650213066E-02   6.2195604917929942E-03   1.6138825805257979E-03
         1         42   3.2971678869329743E-03   2.2338192555335919E-02   1.0923038721086204E-02   1.6183372420827398E-03
         1         43   1.0138876574680864E-08   2.2076288447558396E-03   9.0746593523996272E-06   1.7129139649193022E-05
         1         44   5.5339320622502298E-06   9.1033518706979035E-03   3.4317736193615673E-04   3.2416025878221841E-04
         1         45   7.2916325849321644E-07   5.4618681627273289E-03   4.3391787708163384E-05   5.7888119317458778E-05
         1         46   4.1693278744285319E-06   8.7500307634674306E-03   2.9837135945540172E-04   2.3190771252633817E-04
         1         47   1.1611650931161875E-03   2.4497100639862886E-02   4.7976671798248809E-03   1.2214443946673354E-03
         1         48   2.7808304419284732E-03   1.7031658631474593E-02   9.0206678251452607E-03   1.2579048130054616E-03
         1         49   1.0869154641622213E-04   1.5717048332751886E-02   9.7411042580552488E-04   4.7951896054680698E-04
         1         50   1.3946818227499944E-04   7.4781732673718463E-03   8.1790470350817830E-04   2.1068078754283963E-04
         1         51   1.7367883416295951E-06   1.1922467101971332E-02   2.4465081058718441E-04   2.3866678964486139E-04
         1         52   1.0074410819037564E-07   3.2936827124487112E-03   2.4887714778534261E-05   3.5123326094810804E-05
         1         53   1.7405820200309573E-05   4.1718582940503419E-03   1.1102096631262943E-04   5.0395950861760858E-05
         1         54   5.6088793166523306E-04   1.9797588640997794E-02   3.0436683968877868E-03   8.9933290476631956E-04
         1         55   1.7713017595327334E-03   1.3816942891522747E-02   6.8018458113544957E-03   1.1565589469064751E-03
         1         56   2.2510404448063156E-09   1.2253612750136125E-03   3.2464051953546691E-06   7.9185127697562798E-06
         1         57   2.1085761253881610E-06   6.0612682075372737E-03   1.5687093037523877E-04   1.7384537327905781E-04
         1         58   2.6422701261391941E-07   3.2770757393116561E-03   1.5570191356666906E-05   2.4558234091679330E-05
         1         59   8.2551752653775784E-07   5.3613456411534480E-03   1.1102214067174783E-04   1.0883423789897626E-04
         1         60   1.4873217058419359E-03   1.1141967532737463E-02   5.6181432336602022E-03   9.0236458604533900E-04
         1         61   3.1065061639569350E-08   2.6220888694187118E-03   1.2910637002917237E-05   2.3716385597153912E-05
         1         62   3.5490172768252735E-05   3.7590203597370900E-03   3.1751996963809534E-04   9.8045823126411501E-05
         1         63   9.8384959713469040E-05   9.9127373477924680E-03   9.1383005560289124E-04   3.6536209191079201E-04
         1         64   5.5449715670225451E-09   1.1533322028320283E-03   3.7718441257797352E-06   8.6542501080739970E-06
         1         65   3.7508594022750831E-06   4.4328200441766802E-03   9.4413869534723256E-05   8.8819183280909809E-05
         1         66   2.8118867939635016E-06   1.5419994601976929E-03   3.5633847482673003E-05   1.6445197502877360E-05
         1         67   5.2219993315708630E-08   3.5799645202795154E-03   2.8470143312749682E-05   4.4634026585962178E-05
         1         68   1.2469060566474911E-10   3.9928190143762818E-04   4.6757338901827559E-07   1.9860386738099330E-06
         1         69   2.4792943024219512E-07   2.8069947132515049E-03   3.5151804625959939E-05   5.3753631029288032E-05
         1         70   5.6072213735481645E-08   1.2256418662643408E-03   2.2886430277445656E-06   5.1696356089562426E-06
         1         71   3.2665813474768643E-08   2.1142605143972585E-03   1.6975161861929685E-05   2.7322788610481581E-05
         1         72   6.9406853926323497E-05   7.1850397311083742E-03   5.9642336849124165E-04   2.2642869962070735E-04
         1         73   4.4630981722767099E-04   5.1921243716849409E-03   2.2706144206999634E-03   4.7426681207607667E-04
         1         74   4.1392733475848022E-07   1.8210739713164792E-03   1.7114138494264257E-05   1.8921170829278709E-05
         1         75   2.9354239898656609E-06   1.1221045974577823E-03   5.5214731629259553E-05   2.3332571579912859E-05
         1         76   1.2674266449929948E-10   8.5306333270663128E-04   1.2720397103428350E-06   5.9107617536441904E-06
         1         77   1.4268083595509689E-11   1.6439701377188922E-04   1.2669254306514548E-07   8.5170850049327383E-07
         1         78   9.5061715982862270E-08   1.1919187472340966E-03   6.4846057032208949E-06   1.1219283652958315E-05
         1         79   1.5512528837877529E-07   4.7185801694227860E-04   5.5924572326029825E-06   3.2815809605182160E-06
         1         80   2.2691626577746423E-06   2.3834056128431732E-03   5.7623153812818541E-05   3.8580789632718187E-05
         1         81   3.1487645524667095E-13   5.1967009279345181E-05   1.5196731141806180E-08   1.9126946649602473E-07
         1         82   5.8159102519541142E-09   7.4809460133212899E-04   2.2436177811431507E-06   6.7179748006246402E-06
         1         83   2.6860340180570807E-09   1.8557093388089736E-04   1.0878917774093073E-07   4.4026453039944324E-07
         1         84   5.5379368490092219E-11   3.8070366798295533E-04   5.7266005890759410E-07   2.7514538340746743E-06
         1         85   1.8534291047160201E-06   2.0005996235237821E-03   4.4267910251267510E-05   2.9215522422626081E-05
         1         86   4.3942628494678400E-05   1.3092005002095124E-03   3.9717641890888090E-04   1.2278141082041672E-04
         1         87   2.3660250038748008E-16   1.4551710160841517E-05   1.7655556977579351E-09   5.5897896440242220E-08
         1         88   2.5705011100577690E-10   1.8597566693168334E-04   1.4356109429870661E-07   7.4789288265502866E-07
         1         89   2.4019750088548800E-08   1.1844861458224552E-04   1.9055623567949460E-06   1.3070236309017033E-06
         1         90   6.7692565053241150E-17   5.1581411957714109E-06   5.2298840948172070E-10   1.9306807799420203E-08
         1         91   5.4877961661463980E-11   1.2239629225680500E-04   5.5031982045431109E-08   4.6365617704009141E-07
         1         92   1.1861020338334269E-09   5.1232602653253832E-05   1.9537107748835608E-07   1.8824145278462144E-07
         1         93   3.5947660685292998E-16   2.4708687379710315E-05   3.8856437248957936E-09   1.1178799146157915E-07
         1         94   1.8290927479396773E-09   2.5465041801799959E-04   4.5335712795190779E-07   1.2177501106214201E-06
         1         95   2.1813718480602147E-18   1.2575713395227859E-06   6.7233537643240838E-11   3.8017699842129505E-09
         1         96   5.2794637112751203E-12   6.3062537768490329E-05   1.8674905625755241E-08   2.4534277976237261E-07
         1         97   3.1763444551920814E-12   9.7550237227119109E-06   2.4952280058260440E-09   1.5348581378993215E-08
         1         98   2.0558542720801853E-16   1.4252398188740854E-05   2.3295796473594182E-09   6.8263540263980088E-08
         1         99   1.5228869231455595E-09   2.1646295023741404E-04   3.4378177609391627E-07   9.4936433638187557E-07
         1        100   3.6230416808423545E-07   1.0441496135914274E-04   1.3123695075174876E-05   6.8486924770733623E-06
         1        101   4.7706466544779292E-03   1.2718341241300615E-01   2.1136233944231943E-02   6.4175001174766990E-03
         1        102   1.1994494191473557E-02   1.2981987788017124E-01   3.5306072724079866E-02   8.0942492200584797E-03
         1        103   1.0115047645525951E-01   5.2518570587770386E-01   2.1601550167142902E-01   2.7668798962366813E-02
         1        104   1.5340945826011194E-03   6.7054916059057945E-02   8.2769798487478796E-03   3.1110979690430860E-03
         1        105   9.8716319290414953E-03   1.3966607607260939E-01   3.4215788184466238E-02   8.0991888962531206E-03
         1        106   3.2743448565096828E-03   8.0112167175561841E-02   1.6665461043760429E-02   5.0041981507548301E-03
         1        107   1.7619736691144517E-02   1.4329579190378192E-01   4.5358514161442966E-02   9.0666820007684994E-03
         1        108   7.3523108254309411E-02   2.2726222996767528E-01   1.2354951157348600E-01   1.3483767504026039E-02
         1        109   1.9363896692856956E-03   8.6732412904761788E-02   1.0921947834592978E-02   3.8817905429413720E-03
         1        110   1.3401293743870810E-02   1.7517700622327573E-01   4.2366128834958286E-02   9.1547922779085245E-03
         1        111   6.9463562831463804E-03   8.8846296012810883E-02   1.9952694652947873E-02   4.8477260332699485E-03
         1        112   6.1133033574945850E-04   4.5053822738287445E-02   4.1553979510334620E-03   1.8054837150869635E-03
         1        113   4.8515167525203231E-03   9.5650616059952800E-02   1.9626045202082859E-02   5.4177425626078845E-03
         1        114   1.5556214408960856E-03   5.5300372903796857E-02   8.8352025497207259E-03   2.9621329766482602E-03
         1        115   7.5204371270844780E-03   9.5725189827461601E-02   2.3513847866816494E-02   5.6615879163992161E-03
         1        116   4.7069915656570718E-02   2.7291591475132071E-01   1.0336549548573509E-01   1.3961374452110854E-02
         1        117   4.5087394229776354E-02   1.5402204219762314E-01   8.0952196946586882E-02   9.1690609136363243E-03
         1        118   3.5530346807809198E-04   4.4590659415062940E-02   3.2645497385853260E-03   1.5233714144626527E-03
         1        119   4.0936103260389217E-03   9.0511170205678906E-02   1.5822372939845696E-02   4.3140286622841842E-03
         1        120   2.4047032796363330E-03   4.5231660623076854E-02   7.5998062864519877E-03   1.8851554995877114E-03
         1        121   1.0225885079533416E-04   2.2342205887093170E-02   1.1734260459804644E-03   6.5874647099070801E-04
         1        122   1.3515786738370727E-03   4.9999774808121344E-02   7.3016975078474726E-03   2.6070427934885925E-03
         1        123   4.6398877594663299E-04   2.8574631299295501E-02   2.7873188859192069E-03   1.0981785108170278E-03
         1        124   1.4708491801770297E-03   4.9213945122994492E-02   7.0688668524724572E-03   2.3815308208858139E-03
         1        125   1.6859058600040829E-02   1.3646146804980705E-01   4.0756167270769562E-02   6.6772467963970607E-03
         1        126   1.8470385892707480E-02   7.8232339651770649E-02   4.0161155757810929E-02   4.7035010397444019E-03
         2          1   3.5756944919599348E-01   6.3865843710480341E-01   4.8484944051141809E-01   1.7114845823784929E-02
         2          2   1.3672990870776977E-01   4.2128681744802626E-01   2.3683929608116513E-01   1.9902511051627540E-02
         2          3   1.6005269188181426E-01   3.4137210921302757E-01   2.5087846314053486E-01   1.2104083988670088E-02
         2          4   1.4932207481518731E-01   5.2892404556689776E-01   2.9150803159764532E-01   3.6689922915596876E-02
         2          5   1.7846846329281982E-01   4.5077995876090826E-01   2.3717492765741596E-01   1.4060684711094304E-02
         2          6   1.4756353022534767E-02   1.5573958719944864E-01   7.5988435257872161E-02   1.5282754286259958E-02
         2          7   2.0506832038275753E-02   9.5127860527146210E-02   5.4567031866843183E-02   5.5921950408996867E-03
         2          8   1.6858484141291463E-01   7.5083061947364982E-01   3.1682614242832990E-01   3.8785583101619371E-02
         2          9   2.6847167324642285E-01   5.4225696960946934E-01   3.4174598373532467E-01   1.3396019374226978E-02
         2         10   3.6866600300033804E-03   1.0979567272615588E-01   4.0325000200767236E-02   1.1471432648769299E-02
         2         11   5.0064756029216872E-03   4.2721959248545271E-02   1.9633126580649685E-02   2.8109243056001721E-03
         2         12   3.2691405970399996E-02   2.0331987383922495E-01   1.1926307773915618E-01   1.8202489888867197E-02
         2         13   3.6737111077827532E-02   1.8563176827574737E-01   6.6990149905295004E-02   1.2237393404361117E-02
         2         14   1.2066318202081874E+00   1.9813733844586239E+00   1.5151339642238291E+00   7.1351366258601320E-02
         2         15   6.4859901382849072E-01   1.2853453713598970E+00   9.6039871356023021E-01   6.7099148284643001E-02
         2         16   8.5789053208086075E-01   1.8348601504858093E+00   1.3927567449517075E+00   9.0685072986671222E-02
         2         17   6.4109422650043579E-01   1.6073501160876389E+00   1.0264612850987302E+00   9.4962163945714495E-02
         2         18   2.3208106456284455E-01   5.0400100322683261E-01   3.7536899862043266E-01   3.5287380315983691E-02
         2         19   2.2640712523741441E-01   5.2846953543243191E-01   3.8464019568618540E-01   2.8689808282968233E-02
         2         20   4.3471314346789552E-01   1.0767600124038135E+00   7.6357350107275967E-01   8.3785575886010766E-02
         2         21   3.6595010772610792E-01   9.8946977314064555E-01   6.8338406956012043E-01   5.9457443164440724E-02
         2         22   7.1726593275249842E-03   5.3746138261022133E-02   2.5898659486320148E-02   3.4843284445653321E-03
         2         23   5.6830487096828286E-01   1.4183667761928673E+00   9.8427814658525736E-01   8.3087893661563286E-02
         2         24   2.3542361552775470E-01   1.1307976724196414E+00   6.5466917727278073E-01   9.9636947883255750E-02
         2         25   3.4325588734317520E+00   4.9898765230008042E+00   4.1192395330199911E+00   1.7316709361415422E-01
         2         26   3.1833103640409846E+00   4.5408901662845906E+00   3.8110998762412209E+00   1.6699988125488544E-01
         2         27   6.7943705826023737E-01   1.0827643928936155E+00   8.7116053505404811E-01   4.5822218284916616E-02
         2         28   7.3729882032823135E-01   1.1367583387238223E+00   9.4259260386627697E-01   4.1777253919588496E-02
         2         29   1.2359170239106674E+00   2.1147425413781864E+00   1.6305502637538054E+00   8.8013528032610769E-02
         2         30   1.2022792364880537E+00   2.2206250536880163E+00   1.8038031175977867E+00   1.1610859211121953E-01
         2         31   5.5829225203925671E-02   1.7730152850028208E-01   1.1574924739023899E-01   8.9716737264706782E-03
         2         32   1.3256958316165601E+00   2.6438756410270621E+00   2.0125475003707924E+00   1.6570636326425012E-01
         2         33   1.2674979032075173E+00   2.8010646032515782E+00   2.0775650987177681E+00   1.4614132018482828E-01
         2         34   1.1525075383591351E-02   1.5636598478366234E-01   7.1538036765514873E-02   1.5806556360149358E-02
         2         35   1.2207125669650105E+00   2.8565211261748331E+00   2.0200472317272076E+00   1.9075685210869245E-01
         2         36   8.0508255109897331E-01   2.4993120048274085E+00   1.6608445034767678E+00   1.7482338676983963E-01
         2         37   4.0384442400500021E-04   1.0606690910942020E-02   1.9190949232700736E-03   5.0786990159833168E-04
         2         38   3.7511646788236132E-03   2.0835522199922522E-02   1.0435870585367093E-02   1.5018420055017800E-03
         2         39   1.0242360143839257E-03   7.1288572421863454E-03   3.2959335590128573E-03   3.9330290986171060E-04
         2         40   3.0110096173176005E-03   1.7011116969543549E-02   8.1045354432216308E-03   8.0508301021316772E-04
         2         41   1.7855292942968464E-04   5.3188078854820844E-03   9.2495737832420130E-04   2.2935178128172254E-04
         2         42   2.2757227475324287E-03   1.3295654828172739E-02   7.1376378091796274E-03   1.0938477440817504E-03
         2         43   5.3883710075499594E-04   4.2680521372314862E-03   1.9418697787237946E-03   2.6375806157051583E-04
         2         44   2.4368850467686864E-04   2.5853257459021013E-02   1.8173572049170333E-03   8.6190660981207785E-04
         2         45   5.6510028069864382E-03   2.6372804213245737E-02   1.3164376868816177E-02   1.6082718193645292E-03
         2         46   5.1511924298574177E-05   1.9037809660403865E-03   2.5578624504050447E-04   6.4463927878271351E-05
         2         47   1.0441917843378239E-03   8.1309613159112892E-03   3.9992578693752428E-03   6.5107459417540470E-04
         2         48   1.9657829974801315E-04   2.6726766399311126E-03   9.8402720015740362E-04   1.7098400620558032E-04
         2         49   6.0878529641660881E-05   1.8190927516179095E-02   9.4955753136242288E-04   6.0162470007742576E-04
         2         50   4.4772649289013056E-03   2.0605113919984760E-02   1.0806664763465215E-02   1.3519251492302169E-03
         2         51   1.9170497858674188E-03   1.0653240821432170E-02   5.4288729365971769E-03   5.4832457551513066E-04
         2         52   4.9021868929576917E-04   4.0955640078293868E-03   1.7970689639970274E-03   2.4511729809211896E-04
         2         53   3.9167596833807475E-03   2.0712470066069688E-02   1.0150405642844926E-02   1.3548511576077561E-03
         2         54   6.8459674972591575E-05   3.7567813924794420E-03   4.6327042517820563E-04   1.3224184356527572E-04
         2         55   1.1611995403081625E-03   8.8117739668730783E-03   4.4735666011350159E-03   7.9162680380443504E-04
         2         56   8.4176408572451752E-05   1.6126800074260050E-02   8.4913359297650694E-04   4.6199560792976245E-04
         2         57   1.1469914373124087E-03   8.4736566500943026E-03   3.6774567282894157E-03   4.2592083349792149E-04
         2         58   1.8955304286145811E-05   1.3044720932322068E-03   1.2754772601677574E-04   3.6227199313629068E-05
         2         59   5.5906373696938271E-04   5.4775361672567786E-03   2.4959007311477132E-03   4.6205791930536928E-04
         2         60   9.7487796674008620E-05   1.6249375886321208E-03   5.6081883345010151E-04   1.0480963813261513E-04
         2         61   2.2921199145238590E-03   1.3465177072730717E-02   6.7138506435890175E-03   9.8310468452568922E-04
         2         62   9.1323462757028954E-04   6.4906026421621245E-03   2.9894199391950816E-03   3.4683642971329083E-04
         2         63   2.4467981194710931E-05   3.5135455847942650E-03   2.4640021983984796E-04   9.7633237133368624E-05
         2         64   6.1108545747520998E-04   6.0157490646229007E-03   2.6309147811242051E-03   5.6370697538396411E-04
         2         65   1.1066059643051344E-04   1.5645164081949125E-03   5.5575352211080346E-04   9.6254465902415487E-05
         2         66   3.1899511747727810E-04   3.7494696532237586E-03   1.3471166249265677E-03   1.8929044853598412E-04
         2         67   1.0584786767121483E-05   1.9601239114306339E-03   1.2039465103746309E-04   4.4879878481654542E-05
         2         68   3.2275171762356927E-04   4.2208908960688499E-03   1.8186563066825967E-03   4.1067652129180590E-04
         2         69   8.2078069304351723E-04   8.2820997592276679E-03   3.2554786892249042E-03   6.0138617866935598E-04
         2         70   2.6713548008255580E-06   6.5919848207646225E-04   3.2715075730259480E-05   1.1837743015036001E-05
         2         71   1.4175057932374542E-04   2.5384660129328198E-03   1.0085304639591900E-03   2.3380336385474238E-04
         2         72   2.3345861349547627E-05   6.0822217388702734E-04   1.8379446484563002E-04   4.0035008526975037E-05
         2         73   4.1915288168580130E-06   6.0315578647566568E-03   9.7034779199462948E-05   1.0117711013059079E-04
         2         74   6.3813198677588020E-04   6.4181246740687486E-03   2.7099523944454579E-03   5.1689815455362165E-04
         2         75   2.0739062826948299E-04   2.4761484699078119E-03   9.3704148881709130E-04   1.3732328114742805E-04
         2         76   6.5859000239972107E-07   9.9339022008563486E-04   1.8557560694989273E-05   1.2138709032479511E-05
         2         77   5.9332862269825901E-05   1.5009594571757251E-03   4.6142114585434076E-04   1.4312226016126588E-04
         2         78   6.0636024770181810E-06   2.8081756546670877E-04   5.8767619032894580E-05   1.4756760959904490E-05
         2         79   1.1860450287330623E-04   2.5973439937406590E-03   7.1249972223570452E-04   1.7843621898347813E-04
         2         80   1.8159461168521204E-05   5.7669494493753544E-04   1.4144850376666862E-04   2.8153042553130649E-05
         2         81   2.9601683739628006E-07   5.7069973280433884E-04   8.9980586639661740E-06   5.4041448487010635E-06
         2         82   3.0692476661502502E-05   1.0352753143861926E-03   3.1872404290269035E-04   1.0355012371176773E-04
         2         83   2.5713949339597644E-06   1.6659341731587558E-04   3.7341246937465790E-05   1.0341811065157101E-05
         2         84   2.6621105131798649E-07   2.1676072689671196E-03   1.4566349823050790E-05   1.9220001591554720E-05
         2         85   6.3573619279181310E-08   1.9386245540899748E-04   2.3619657654861455E-06   1.3379341617793589E-06
         2         86   1.1106504670830875E-05   5.8336132906895645E-04   1.7517092805705505E-04   5.7534452979899394E-05
         2         87   1.2258076081599525E-06   9.4831800646000996E-05   2.0367044537298349E-05   5.9236921584239640E-06
         2         88   6.7896782386730593E-08   1.7709774018461698E-03   6.5944470989621755E-06   1.3531095000653685E-05
         2         89   5.5675252506878679E-05   1.7399768032246292E-03   4.7538944814900488E-04   1.3329368630784198E-04
         2         90   1.1619448271813307E-05   3.9526089254831643E-04   1.0022915866991658E-04   2.1021014736004040E-05
         2         91   5.7276017250259165E-10   8.6757682155931226E-05   1.4088132129583356E-07   3.2466289665833150E-07
         2         92   6.1741326361987348E-07   1.1498631596542833E-04   1.5349397629091781E-05   7.8780536799385458E-06
         2         93   2.0984267801777880E-08   1.0133253295738533E-05   7.4695396756353493E-07   3.1012374555695757E-07
         2         94   1.4657249000465109E-06   2.4463798163400788E-04   2.3962912603417303E-05   1.0140753952074136E-05
         2         95   6.5825885136132372E-08   1.7378781057051435E-05   1.7945133550037036E-06   5.8672236063727777E-07
         2         96   2.8729056769193398E-07   7.5419127107253966E-05   1.0499112615415913E-05   5.6106852960292577E-06
         2         97   7.8569371424592787E-09   6.2225924296564936E-06   4.7780477301897339E-07   2.1825900518002067E-07
         2         98   1.8465942367219656E-10   2.3776554605745714E-04   1.2602405698054382E-07   8.5848895405335193E-07
         2         99   5.0642228003621937E-08   1.5292559183770413E-05   1.5253641604591402E-06   5.1980237793169561E-07
         2        100   5.5565279338722354E-11   1.7272663425453584E-05   1.5643794311765235E-08   3.3025236904221510E-08
         2        101   1.0686986504599797E-07   3.5326052248822849E-05   5.6689582036166844E-06   3.0246904854047370E-06
         2        102   2.8038165416497719E-09   2.4768835251939526E-06   2.6192854609147044E-07   1.2057722676390302E-07
         2        103   4.4124816309944918E-11   1.8958020757037138E-04   5.9367388818035293E-08   6.4369075776114996E-07
         2        104   4.8049427576382242E-07   1.5664784033385840E-04   1.5877450145589847E-05   7.5864174278681687E-06
         2        105   3.9774096129443039E-08   1.2188247410321940E-05   1.2783258154415242E-06   4.4203500704914332E-07
         2        106   2.2338054263339117E-02   1.3529591185738365E-01   4.7254523881298950E-02   6.8851428326824555E-03
         2        107   6.9139754440285667E-02   2.4263192793089169E-01   1.1880480859714565E-01   1.0050307708621994E-02
         2        108   2.3608267773067515E-02   7.9019963861582290E-02   4.2021736728262295E-02   3.4387093946167072E-03
         2        109   1.3692651779428416E-01   4.7312658825048204E-01   2.3618758335862530E-01   2.2032340790834246E-02
         2        110   7.5017931944517377E-02   1.9337857233715547E-01   1.0673966852455409E-01   7.3220609419712528E-03
         2        111   1.0951035795848451E-02   6.3779392154791698E-02   2.2102591306120863E-02   3.1566562828185484E-03